LAMMPS data file via write_data, version 29 Oct 2020, timestep = 55000

1000 atoms
5 atom types
1005 bonds
3 bond types

0.0 80.0 xlo xhi
0.0 80.0 ylo yhi
0.0 80.0 zlo zhi

Masses

1 1
2 1
3 1
4 1
5 1

Atoms # full

12 1 1 0.0 36.411123977572295 1.2214574376493832 21.69958598798028 0 0 0
8 1 1 0.0 34.608191648063986 2.0143059028177746 21.556169914145066 0 0 0
9 1 1 0.0 35.42967603579244 1.963656470569454 21.6469891946122 0 0 0
13 1 1 0.0 37.273662396238166 1.5520145898928452 21.81461971744356 0 0 0
7 1 1 0.0 33.78574170718239 2.175275351602513 22.076820592084665 0 0 0
11 1 1 0.0 36.268940312186245 2.1791682003177204 21.690060406238047 0 0 0
19 1 1 0.0 39.912523665627766 3.1029740453350825 22.106199768554426 0 0 0
23 1 1 0.0 42.36191509101642 3.0144284415766944 22.080176144148083 0 0 0
14 1 2 0.0 38.22906001177178 1.8213337161213077 22.28117175418056 0 0 0
6 1 1 0.0 34.453145225870905 2.788798522611952 22.485078360939973 0 0 0
10 1 1 0.0 35.95760264503035 2.613359965531857 22.209061852856085 0 0 0
22 1 1 0.0 42.108878988235894 2.3163531323154323 22.553893843355233 0 0 0
32 1 1 0.0 42.85555384340197 5.4039646628790345 22.732084868176305 0 0 0
56 1 1 0.0 42.900906329805686 15.82187471581864 22.83876728181445 0 0 0
64 1 1 0.0 44.61484969175388 17.62587985064543 22.625318091423587 0 0 0
66 1 1 0.0 44.433138506688884 18.548775606799477 22.592545722778222 0 0 0
5 1 1 0.0 35.05408527247382 2.697257783576868 23.21271718819518 0 0 0
15 1 3 0.0 37.86355830868028 2.329220414016387 23.04233208207494 0 0 0
17 1 1 0.0 38.882599029036264 2.242188286913193 23.075242299467945 0 0 0
20 1 1 0.0 40.29909770109534 2.687823695058789 22.990942538814068 0 0 0
21 1 1 0.0 41.258193660553324 2.6169022997495355 23.135597176780426 0 0 0
18 1 4 0.0 39.150795783163886 3.0533037893959984 22.908221295707843 0 0 0
24 1 1 0.0 42.24768207232717 3.2747174514460275 23.055804844421452 0 0 0
25 1 1 0.0 41.530225555372006 3.9971202203191365 23.341191235375373 0 0 0
28 1 1 0.0 41.425945545651416 4.6442370465972 23.515055999618372 0 0 0
43 1 1 0.0 41.8603389780265 10.137243901527981 23.313908921703913 0 0 0
46 1 1 0.0 42.38752741300695 11.91388958381479 23.180900985172222 0 0 0
55 1 1 0.0 43.49801859194701 15.14752635533962 23.20116204892821 0 0 0
53 1 1 0.0 43.239909000457516 15.448157184055859 23.328500518938 0 0 0
61 1 1 0.0 43.88567513612346 17.036764225707117 23.15033351949417 0 0 0
63 1 1 0.0 43.9858769312355 16.895642241948753 22.96481844162462 0 0 0
62 1 1 0.0 44.48237157442266 17.838409195658446 23.198489945006298 0 0 0
65 1 1 0.0 43.728734217029725 18.00027580892166 23.035048723392965 0 0 0
67 1 1 0.0 45.09585625937457 18.744656240493466 23.524667893962416 0 0 0
16 1 1 0.0 38.42641726672117 1.5846896438968465 23.624670084434857 0 0 0
4 1 1 0.0 34.92352445232587 2.324968628658069 24.246537693620756 0 0 0
26 1 1 0.0 41.18444625372653 4.690474809006537 24.20507823603056 0 0 0
27 1 1 0.0 41.68300269591694 5.559970417688521 24.054393930701597 0 0 0
29 1 1 0.0 41.60103519746593 5.427969656944709 24.133547720212377 0 0 0
31 1 1 0.0 42.949489226274665 5.191720677585839 23.823259789025403 0 0 0
33 1 1 0.0 43.050001603252134 5.511122857131481 23.715231901482024 0 0 0
30 1 1 0.0 42.29119235693645 5.850777986786381 23.610485677373084 0 0 0
38 1 1 0.0 41.24481802536286 8.122147148150363 23.944517453681623 0 0 0
41 1 1 0.0 42.121571205306566 10.069927606927598 23.64219336071833 0 0 0
44 1 1 0.0 42.65723436505053 10.50776657003066 23.82173705323128 0 0 0
42 1 1 0.0 41.938362768153425 11.046226485371882 23.7633222154784 0 0 0
45 1 1 0.0 42.01526456110128 11.181737873383215 23.85535359867644 0 0 0
47 1 1 0.0 43.048844122110566 11.728369630428844 23.802865969572352 0 0 0
49 1 1 0.0 42.340192699252384 13.207949811670384 24.075405843863788 0 0 0
51 1 1 0.0 42.15225306847936 13.98164766212848 23.995220845378395 0 0 0
52 1 1 0.0 42.772028753349005 14.719703029863012 23.73918046173336 0 0 0
54 1 1 0.0 42.85661819571092 14.84848695542842 24.02849282233566 0 0 0
57 1 1 0.0 42.7970857737989 16.312416449100976 23.744767195091924 0 0 0
60 1 1 0.0 43.88089420285511 16.414708672193722 24.031456178740896 0 0 0
68 1 1 0.0 45.95767661666389 18.388600073250068 23.988885412956424 0 0 0
34 1 1 0.0 42.81933123879317 6.3339041074924864 24.324976812435505 0 0 0
36 1 1 0.0 41.38734208003919 6.6432612879802635 24.98420714477061 0 0 0
35 1 1 0.0 42.22218135501767 7.019433159262458 24.55693189318394 0 0 0
37 1 1 0.0 41.005993502373954 7.541804092670362 24.78922030813755 0 0 0
39 1 1 0.0 41.770988991310084 8.904757215445589 24.46754806927731 0 0 0
40 1 1 0.0 41.631408581882674 9.871823728567351 24.445571778357433 0 0 0
48 1 1 0.0 43.14761092764232 12.462365400063199 24.506565504132855 0 0 0
50 1 1 0.0 42.94592308827961 13.951706433155858 24.541172678528188 0 0 0
58 1 1 0.0 42.69957703607407 16.24582635986813 24.821711907686826 0 0 0
59 1 1 0.0 43.631291028089045 16.472697479882694 24.975321280341458 0 0 0
69 1 1 0.0 45.45068559722292 19.298388223461885 24.4225998305487 0 0 0
3 1 1 0.0 34.68055547177999 2.294223568449274 25.34406056523623 0 0 0
70 1 1 0.0 45.021273432859616 19.707153918363492 25.214767129490827 0 0 0
73 1 1 0.0 45.61320918491356 19.717328156458294 25.623911501009793 0 0 0
1 1 1 0.0 33.42056404378768 3.0740907106689215 26.327792691324074 0 0 0
2 1 1 0.0 34.359732865624714 3.0575747902436015 25.90287147270469 0 0 0
71 1 1 0.0 45.29273287471721 19.64172803164415 26.10903883371497 0 0 0
75 1 1 0.0 44.7451340587536 18.65270155618301 26.889847252262104 0 0 0
77 1 1 0.0 43.61971659956566 19.57980337212737 27.13718904113488 0 0 0
76 1 1 0.0 44.68545312349459 19.526070365188197 26.75969684088294 0 0 0
74 1 1 0.0 45.026479370982294 19.398760911038078 26.466591257452134 0 0 0
72 1 1 0.0 45.40804551836645 20.243083763192907 26.666624707901022 0 0 0
78 1 2 0.0 44.181718096986955 19.53605809033973 27.850966029382224 0 0 0
80 1 1 0.0 43.39193051804942 20.407127850481057 27.84111926416663 0 0 0
79 1 4 0.0 44.34102586760287 20.49247922501756 27.70679979278215 0 0 0
81 1 1 0.0 44.073917626505065 21.00496131403595 27.96324037765238 0 0 0
85 1 1 0.0 46.105393569479446 21.376040109503805 28.292432205317777 0 0 0
88 1 1 0.0 44.1008451677827 22.897996939743297 28.4945927927732 0 0 0
82 1 1 0.0 44.600348987586116 21.001447163472886 28.83094025269678 0 0 0
83 1 1 0.0 45.39425838583507 21.290838867493115 29.163960020087234 0 0 0
84 1 1 0.0 46.37810497858854 21.11135614707414 29.273754787456067 0 0 0
86 1 1 0.0 45.672697680774164 22.051222923908547 28.87919872830454 0 0 0
87 1 1 0.0 44.98829418769736 22.7597530368201 28.839838131617448 0 0 0
89 1 1 0.0 43.776821549702014 23.829516427773584 28.679646606035572 0 0 0
91 1 1 0.0 43.47480714926346 24.18414469028907 29.716303704526474 0 0 0
90 1 1 0.0 44.29858535395505 23.626565503649548 29.415763264209303 0 0 0
92 1 1 0.0 42.82611818841742 24.76979070039857 29.89969731319007 0 0 0
93 1 1 0.0 43.56604507851277 25.543221090600458 29.914817250940267 0 0 0
96 1 1 0.0 44.09206800262298 25.6898988442847 29.859582950632674 0 0 0
94 1 1 0.0 44.19658985542596 25.70205906800519 30.597422299356765 0 0 0
95 1 1 0.0 43.8396369253719 26.53951738440038 30.416296700932627 0 0 0
98 1 1 0.0 44.71310791600278 26.76364682659566 30.545643638984618 0 0 0
97 1 4 0.0 44.023028383385146 26.093709415965495 30.880218218060595 0 0 0
99 1 1 0.0 44.9004770111082 26.704070113010054 31.546925304928777 0 0 0
100 1 1 0.0 44.56358950784019 27.26110483716612 32.26531978062883 0 0 0
101 1 1 0.0 44.75691564925808 27.258618216218238 33.14624022988678 0 0 0
499 1 1 0.0 49.878752675149265 57.42110099665669 33.46918472741967 0 0 0
105 1 1 0.0 42.84517111814592 27.21027908714203 33.72444720959538 0 0 0
102 1 1 0.0 44.280139056916795 27.449863153554514 34.09076920383191 0 0 0
104 1 1 0.0 43.813870501786724 27.447678506260683 33.66998464261002 0 0 0
103 1 1 0.0 44.103320185423506 28.46573309024347 33.9091294026906 0 0 0
108 1 1 0.0 42.064960293043185 28.99588719197919 34.263218778750144 0 0 0
109 1 1 0.0 43.000443088454446 28.5803035774114 34.17422479858027 0 0 0
214 1 1 0.0 29.231366185042706 41.35191876822229 34.00116113327923 0 0 0
233 1 1 0.0 33.19097229116536 43.40584449331155 34.12244447023123 0 0 0
232 1 1 0.0 33.548613951192905 44.48801572704171 33.928735058547666 0 0 0
500 1 1 0.0 50.440734922760456 57.77939749823029 34.15285380029688 0 0 0
498 1 2 0.0 49.66209935501785 58.40296872510347 33.68245857572245 0 0 0
118 1 1 0.0 40.55736031513436 25.342983477598043 34.85147369826828 0 0 0
121 1 1 0.0 38.38165774131245 25.801132672099644 34.42005373296366 0 0 0
119 1 1 0.0 39.52696136352859 25.732256536540916 34.69383744961493 0 0 0
117 1 1 0.0 41.375673070625865 25.93458164155299 34.98568142946446 0 0 0
122 1 1 0.0 38.807811329271196 26.603000933949975 34.892361485464285 0 0 0
115 1 1 0.0 40.4967299789119 26.87919454150719 34.46367507045444 0 0 0
107 1 1 0.0 42.133940262704456 28.11346253644606 34.83259348831523 0 0 0
106 1 1 0.0 42.878236001532635 28.157283405337665 34.303029704106955 0 0 0
162 1 1 0.0 35.82427523801544 31.97770433314655 34.93311384082117 0 0 0
215 1 1 0.0 29.061969821522073 40.63348699625722 34.820370916495975 0 0 0
213 1 1 0.0 29.092543456287334 41.456824614822516 34.96598418952616 0 0 0
234 1 1 0.0 33.81794215389078 43.33504293296702 34.86045887593523 0 0 0
230 1 1 0.0 32.978952778968235 44.0859192745332 34.95593112819945 0 0 0
231 1 1 0.0 33.538181534266634 43.686528639101226 34.55840540349463 0 0 0
382 1 1 0.0 46.15562921638562 52.43488357677754 34.83055099141121 0 0 0
381 1 1 0.0 47.31470060517422 52.31249946696354 34.94239882700785 0 0 0
383 1 1 0.0 45.537470492276185 53.241356328779844 34.651929419943905 0 0 0
423 1 1 0.0 35.62100981810388 58.261860478151064 34.732375479600194 0 0 0
496 1 1 0.0 48.79162287805322 58.75469162315443 34.731168150088074 0 0 0
497 1 2 0.0 49.82499924770695 58.92282420387509 34.59418387488837 0 0 0
502 2 1 0.0 44.870734752228046 4.656790610319232 35.36322194289985 0 0 0
513 2 1 0.0 42.53932882987658 8.452905675309026 35.40743551489007 0 0 0
514 2 2 0.0 43.390585216312736 8.949600011991796 35.0825819147121 0 0 0
515 2 3 0.0 44.04477005052956 9.516836174194948 35.41224614166019 0 0 0
125 1 1 0.0 37.679416048666205 26.115674363309417 35.53499159612047 0 0 0
120 1 1 0.0 38.84075215275709 25.856546026427683 35.35526116372219 0 0 0
124 1 1 0.0 37.064635841954505 26.733990393395274 35.32767992423046 0 0 0
114 1 1 0.0 40.960543830704374 26.85533601150858 35.3458537908371 0 0 0
116 1 1 0.0 40.8172742881332 26.826613819931136 35.432546791486175 0 0 0
112 1 1 0.0 42.65872252596014 26.873946730060997 35.23196652707792 0 0 0
123 1 1 0.0 38.090199331153485 27.179925309709528 35.14321615578796 0 0 0
111 1 1 0.0 43.13841524864644 27.732555445325183 35.31351906232366 0 0 0
110 1 1 0.0 43.19010881103439 28.681736302065268 35.09183302428929 0 0 0
161 1 1 0.0 35.457321994929565 32.67199481378247 35.67808607632983 0 0 0
160 1 1 0.0 35.32043909947928 33.607507221969506 35.6154082953738 0 0 0
216 1 1 0.0 28.88917357094918 39.93688885852207 35.5206538317782 0 0 0
217 1 1 0.0 29.5144621498086 40.71292797256559 35.13759273104324 0 0 0
212 1 1 0.0 28.61671755859627 42.11037030345633 35.60917710229936 0 0 0
222 1 1 0.0 30.660892649155908 41.67514190623323 35.492680933754585 0 0 0
235 1 1 0.0 32.97602465545259 42.60574386700084 35.11357128692831 0 0 0
236 1 1 0.0 33.770438493306955 42.22916925842462 35.60509246516604 0 0 0
211 1 1 0.0 28.546006885178958 43.130435364382514 35.297111110961616 0 0 0
224 1 1 0.0 31.372600976869112 42.86814876027064 35.49222658750686 0 0 0
226 1 1 0.0 31.60973881451363 44.74819674076324 35.49781451756392 0 0 0
227 1 1 0.0 32.65080776936556 44.771070980774965 35.554938055055786 0 0 0
384 1 1 0.0 45.39981678356436 53.87909673951878 35.327450660832575 0 0 0
409 1 1 0.0 40.09909476814114 55.851961935440734 35.5486628766625 0 0 0
410 1 1 0.0 40.195889708847936 56.87174789009716 35.383674332761494 0 0 0
424 1 1 0.0 35.601065902836595 57.65540612983011 35.44878795499643 0 0 0
419 1 1 0.0 37.58970957767365 57.28654779948716 35.50054678761563 0 0 0
421 1 1 0.0 35.86319507181028 58.03821446198878 35.328092819907795 0 0 0
420 1 4 0.0 36.90596788038866 58.0126393750216 35.489031935949555 0 0 0
422 1 1 0.0 35.168225973272484 58.86489319981001 35.20333791854099 0 0 0
493 1 1 0.0 46.55438519245864 59.164501836200685 35.48220448845394 0 0 0
494 1 1 0.0 47.55090992524593 59.03029767372924 35.580064456440184 0 0 0
495 1 4 0.0 48.408802195746084 59.382956208555385 35.50975316700288 0 0 0
503 2 1 0.0 44.03035062652644 4.77527142762669 35.787869292650804 0 0 0
501 2 1 0.0 44.849228810088356 4.492466923082013 36.40735106653241 0 0 0
506 2 1 0.0 44.04883528933418 5.86071092275484 36.35424887491083 0 0 0
504 2 1 0.0 44.138102644541405 5.904347053118639 36.000829576010965 0 0 0
516 2 1 0.0 43.59571478726869 9.645113231629493 36.31334076589993 0 0 0
126 1 1 0.0 37.53100110545577 26.8222446453684 36.079996514397244 0 0 0
113 1 1 0.0 41.869651896863 26.660736184330798 35.71711655598935 0 0 0
127 1 1 0.0 36.538132878241036 27.16288962473594 36.389052726498235 0 0 0
163 1 1 0.0 35.47117884133102 31.644142446912845 35.81136395007113 0 0 0
159 1 1 0.0 35.89982116144457 34.44949358780612 35.826972135743226 0 0 0
218 1 1 0.0 29.995893136846426 40.60708957704448 35.98196466671899 0 0 0
221 1 1 0.0 31.472387039236086 41.277627748338794 35.85880285676527 0 0 0
220 1 1 0.0 30.751052450935425 41.82666354599472 36.10023737232289 0 0 0
223 1 1 0.0 31.448771241359267 42.002117031434075 35.86360857037163 0 0 0
237 1 1 0.0 34.25448669362115 41.65694689776109 36.311428182051436 0 0 0
210 1 1 0.0 28.40109678229476 43.0048839729102 36.346603310766405 0 0 0
225 1 1 0.0 31.65366031674684 43.66594668096332 35.83765124459474 0 0 0
229 1 1 0.0 33.26459320294208 44.25911798125749 35.852996162036874 0 0 0
379 1 1 0.0 48.24627720076007 51.67115733022538 36.11318908622609 0 0 0
380 1 1 0.0 47.466890735474216 52.217694990844485 35.8260043444794 0 0 0
404 1 1 0.0 37.77571712439926 54.79453663803491 35.98576068369538 0 0 0
385 1 1 0.0 45.56058253142864 54.60461237930047 35.993378907003034 0 0 0
405 1 1 0.0 38.486980491993144 55.58426406947313 35.85584063479678 0 0 0
395 1 1 0.0 41.39681697604798 55.45883322823683 36.19499967460575 0 0 0
394 1 1 0.0 42.33009566790058 55.30503202482628 36.26670006124254 0 0 0
393 1 1 0.0 43.262777547328874 55.63419012924919 36.40182465487285 0 0 0
407 1 1 0.0 38.46020029320921 56.76625204947069 35.773633020259524 0 0 0
408 1 1 0.0 39.39119795917775 56.57685950839701 35.944147208202494 0 0 0
418 1 1 0.0 37.084585631937394 57.392785453929186 36.35133383039335 0 0 0
415 1 1 0.0 38.981461266539895 57.7090942998604 36.17582139276285 0 0 0
411 1 1 0.0 40.35221992083105 57.36398957575604 36.15885908012842 0 0 0
425 1 1 0.0 35.9165078082028 58.172179236360414 36.26911756159532 0 0 0
417 1 1 0.0 37.40955811281133 58.480016360945896 36.27459664790296 0 0 0
412 1 1 0.0 39.62415928237514 57.92858911248267 35.97258956401022 0 0 0
414 1 1 0.0 39.95775240889156 57.9047893296087 35.91210830547674 0 0 0
426 1 1 0.0 36.22652261026067 59.13874652764049 36.23545556180174 0 0 0
470 1 1 0.0 42.240163915237474 69.65377863172303 36.19239540772838 0 0 0
508 2 1 0.0 44.1367476497015 6.357925618510587 36.8558364495001 0 0 0
507 2 1 0.0 44.988987809038484 5.959665750302219 36.5427355614066 0 0 0
505 2 1 0.0 45.002727297711566 5.924435773709937 36.53368142025394 0 0 0
511 2 1 0.0 43.13792458056266 7.333105398830403 36.64531592541797 0 0 0
510 2 1 0.0 44.16404340194285 7.278284465445618 36.51866332555492 0 0 0
512 2 1 0.0 42.70492735259189 8.228610276336111 36.46803834813064 0 0 0
164 1 1 0.0 35.98804776361436 31.75058302843661 36.659268857973096 0 0 0
165 1 1 0.0 36.524766457626406 32.72739302892172 36.8930171125909 0 0 0
158 1 1 0.0 35.604256436782634 35.07602912772994 36.55749130570178 0 0 0
239 1 1 0.0 34.91932657769879 40.62858597307837 36.73143735590397 0 0 0
219 1 1 0.0 30.650534701252326 40.98597420052085 36.69982998108533 0 0 0
208 1 1 0.0 29.39520270845136 41.76902954259737 36.586268466280515 0 0 0
209 1 1 0.0 29.248514802356492 42.75098781615591 36.51865752900628 0 0 0
243 1 1 0.0 36.079980956061846 42.257201152432806 37.1211793269213 0 0 0
248 1 1 0.0 37.119107599374196 42.196023778055306 36.89610494612232 0 0 0
246 1 1 0.0 36.80885520661265 42.86498075501115 37.08014835214926 0 0 0
247 1 1 0.0 37.67246568391549 42.92724065655749 36.70146312742497 0 0 0
228 1 1 0.0 32.450497677666746 44.61572933755656 36.51038744746106 0 0 0
378 1 1 0.0 47.94323273131069 51.25462065574948 36.92799844884685 0 0 0
376 1 1 0.0 49.70325251546325 52.23509968159778 36.867927176348374 0 0 0
386 1 1 0.0 45.26230455203119 54.26622169158645 36.90645315611095 0 0 0
403 1 1 0.0 37.97061454003827 54.673691536724846 36.853248005221104 0 0 0
400 1 1 0.0 39.624218897680834 54.83724745477723 37.01618186718868 0 0 0
397 1 1 0.0 41.42697336972027 54.77164827381022 36.637606855629244 0 0 0
402 1 1 0.0 38.76086217371015 55.145383068989325 36.88594229321082 0 0 0
396 1 1 0.0 41.62468204317529 55.47252196171534 37.13004978255781 0 0 0
387 1 1 0.0 44.89064848730115 55.10873326119508 36.95246712970833 0 0 0
907 2 1 0.0 36.166272576848414 56.2428950331329 37.09402851820745 0 0 0
406 1 1 0.0 38.84321677030358 56.20411556859825 36.44772857977397 0 0 0
413 1 1 0.0 40.15014709720585 57.374249649061454 36.725558476458396 0 0 0
416 1 1 0.0 38.24645247098474 58.0741068581206 36.67328137788489 0 0 0
491 1 1 0.0 45.41417020885435 59.73809860618244 36.45732736231201 0 0 0
489 1 2 0.0 45.28651123776323 59.56252124204667 36.74816267166512 0 0 0
492 1 1 0.0 46.382505973291245 59.60008201236403 36.45748632543642 0 0 0
427 1 1 0.0 36.02270560066122 60.188662972833605 36.43224301687494 0 0 0
488 1 1 0.0 45.04064042726227 60.56795327021832 36.65392933831784 0 0 0
487 1 1 0.0 44.725044004067996 61.565008224196376 36.827453262664086 0 0 0
486 1 1 0.0 44.86088797671156 62.712165563631565 36.806360589641095 0 0 0
468 1 1 0.0 41.582874729666536 68.96735711330143 37.03114084675796 0 0 0
471 1 1 0.0 41.9679296931897 68.76049201073027 36.58704892360979 0 0 0
509 2 1 0.0 43.58550826874809 7.062049458374309 37.19943165617527 0 0 0
519 2 1 0.0 41.991679162539214 8.128600154390499 37.69444947772576 0 0 0
518 2 4 0.0 42.48984424375945 8.761852618267769 37.28181663792705 0 0 0
520 2 1 0.0 42.72050342004626 8.757819297817175 37.22129599048729 0 0 0
517 2 1 0.0 43.40170826509053 9.180151071144603 37.289251527075244 0 0 0
129 1 1 0.0 35.60868846460656 26.69289323385775 37.51950211042796 0 0 0
128 1 1 0.0 36.523304748546835 26.8391540809202 37.299647492246 0 0 0
131 1 4 0.0 35.06398129399607 27.37613550266345 37.61410512847122 0 0 0
132 1 1 0.0 36.031386010933694 27.757993926483078 37.727518359932155 0 0 0
130 1 1 0.0 36.138808474623566 27.507108547088382 37.53037535035674 0 0 0
140 1 1 0.0 34.025653923042334 29.73948109886875 37.8394946500923 0 0 0
166 1 1 0.0 36.44668825938959 31.788279935479434 37.230041110239995 0 0 0
167 1 1 0.0 37.09501702493574 32.5013932178294 37.422944246608836 0 0 0
157 1 1 0.0 35.51516405608375 35.72333001044922 37.26902656440111 0 0 0
207 1 1 0.0 29.886287791126723 41.222340264798056 37.39286229287024 0 0 0
240 1 1 0.0 34.18323284904794 41.097158685252296 37.149076490159786 0 0 0
241 1 1 0.0 34.93341243144206 41.215301314164016 37.781832196921016 0 0 0
238 1 1 0.0 34.737069742171585 41.4765943646957 37.14804241989182 0 0 0
244 1 1 0.0 35.058061335983076 42.462914677206555 37.251821633833764 0 0 0
245 1 1 0.0 35.972907688823966 42.264781256893876 37.28514868396669 0 0 0
364 1 1 0.0 52.19223740369241 47.73965788001776 37.147815625015184 0 0 0
365 1 1 0.0 53.217198446730734 47.90305650065021 37.42126230596163 0 0 0
372 1 1 0.0 49.178440337225986 49.72594172338357 37.2512912826322 0 0 0
371 1 1 0.0 50.22582166028322 49.776225317461865 37.362388884035575 0 0 0
377 1 1 0.0 48.69800538347794 51.88592138154716 37.25734574634321 0 0 0
375 1 1 0.0 50.00971337217582 51.97661897483411 37.855075933278535 0 0 0
399 1 1 0.0 40.361063543237904 54.399722259630835 37.37393873825555 0 0 0
398 1 1 0.0 41.32663632674808 54.73908468456258 37.6343876686885 0 0 0
388 1 1 0.0 44.08844052042873 54.997593065547285 37.642893724471605 0 0 0
401 1 1 0.0 39.32845564780406 55.274531225184035 37.74507379820289 0 0 0
392 1 1 0.0 43.79211610678898 55.93736273127912 37.271006121404056 0 0 0
391 1 1 0.0 44.7221729312392 55.92937789129077 37.65475027645606 0 0 0
908 2 1 0.0 35.22611549457914 56.92174241489835 37.210391584484206 0 0 0
906 2 1 0.0 36.39888161630272 57.11479726847336 37.35085179161797 0 0 0
428 1 1 0.0 35.53245262914364 60.23514410455226 37.18498598330257 0 0 0
490 1 1 0.0 45.0425915371032 60.06578724042791 37.504450687859375 0 0 0
485 1 1 0.0 44.120408073251454 63.00663905235207 37.58396010837027 0 0 0
482 1 1 0.0 44.769006647024334 63.427843231786184 37.66566024455093 0 0 0
479 1 2 0.0 43.364895588189825 65.29352792484981 37.75637941881501 0 0 0
475 1 1 0.0 42.69775776561862 68.26740966345639 37.79479146555322 0 0 0
467 1 1 0.0 41.07678169641323 68.84095569382696 37.8363363371653 0 0 0
472 1 1 0.0 42.42487609678794 68.97766153011045 37.37653136173227 0 0 0
473 1 1 0.0 43.43410520058116 69.28433399653102 37.35725564003405 0 0 0
469 1 1 0.0 42.10851882618152 69.9329344661312 37.18263939705573 0 0 0
525 2 1 0.0 43.77065217758746 7.80352579329708 38.14056689316576 0 0 0
521 2 1 0.0 42.413218706976664 8.241491437365509 38.06961553084005 0 0 0
526 2 1 0.0 44.52923719023004 8.563044702249552 38.299183089370054 0 0 0
134 1 1 0.0 35.3994072054457 27.155317805821706 38.48941827143081 0 0 0
133 1 1 0.0 36.35634826221479 27.444923105457107 38.49470238801797 0 0 0
139 1 1 0.0 34.888253761833646 29.234433906977934 38.237956064069046 0 0 0
142 1 2 0.0 34.02378310836385 30.407663325448002 38.478662029549476 0 0 0
143 1 1 0.0 33.311595670819045 30.848969386739675 37.86761373500741 0 0 0
144 1 1 0.0 32.78563493680959 31.714406842891616 38.15898414222225 0 0 0
146 1 1 0.0 32.2915660330721 31.93521680755806 38.2113704754026 0 0 0
168 1 1 0.0 37.101362942375786 31.849317159465485 38.04959863118863 0 0 0
145 1 1 0.0 32.905803668427126 32.70555514985855 38.455890503562486 0 0 0
147 1 1 0.0 32.89762454931924 32.81356547452603 38.177469569839616 0 0 0
152 1 1 0.0 34.74040120511804 32.45105174328776 38.21269486227416 0 0 0
153 1 1 0.0 34.72621107412811 33.41108099854793 38.24582117610329 0 0 0
154 1 1 0.0 35.19570101057293 34.43819289685678 38.01662105760797 0 0 0
155 1 1 0.0 36.090764340455856 34.97503407488668 38.2273373823115 0 0 0
156 1 1 0.0 35.345161330066816 35.85911476200607 38.26327654400095 0 0 0
203 1 1 0.0 28.57700678492993 39.22784789524104 38.36789966869896 0 0 0
255 1 1 0.0 36.33393632186877 39.974530774171726 38.569258539721865 0 0 0
206 1 1 0.0 30.038192590946288 40.46778330633754 38.26627704240743 0 0 0
254 1 1 0.0 36.88455112377124 40.45235160325096 38.29590315038927 0 0 0
251 1 1 0.0 37.837754562589076 41.383759694758005 38.46157682874618 0 0 0
242 1 1 0.0 35.47568663876535 42.13090669569316 37.8775186798341 0 0 0
250 1 1 0.0 36.88289887122674 41.50403235071232 38.03475247470988 0 0 0
249 1 1 0.0 37.422767073248565 42.35909552420787 37.96311321152085 0 0 0
363 1 1 0.0 53.02533276333194 47.80590590014047 37.977811100435524 0 0 0
366 1 1 0.0 52.479409005582376 47.98927733559173 38.16553457272828 0 0 0
367 1 1 0.0 52.12519002094488 48.7783633465553 38.507257757733065 0 0 0
370 1 1 0.0 50.827659990607 49.33688571937201 37.88775192851516 0 0 0
369 1 1 0.0 51.75173852825623 49.5000552988239 37.98703932812555 0 0 0
373 1 1 0.0 49.55141144140084 50.06278103225576 38.043689617291314 0 0 0
374 1 1 0.0 49.584587202061336 51.03643568639497 37.90313431620534 0 0 0
897 2 1 0.0 38.909489118232734 53.67470571164959 38.221035714026655 0 0 0
898 2 1 0.0 39.87578887870666 54.272963403067884 38.277535873418024 0 0 0
895 2 1 0.0 39.36064057780646 53.65869504755776 38.39443983070641 0 0 0
899 2 1 0.0 39.15558992769978 54.950410071365596 37.89696026025264 0 0 0
912 2 1 0.0 35.03129000387705 55.40906460125365 37.99441388942143 0 0 0
900 2 1 0.0 39.762296002874045 55.26715092386714 38.396265011738286 0 0 0
389 1 1 0.0 43.30736228009413 55.459271131361305 38.19345478114523 0 0 0
910 2 1 0.0 35.48542812854078 55.83422758649408 38.395828763404076 0 0 0
903 2 1 0.0 38.171070642976 56.27656948150235 38.46389715730442 0 0 0
390 1 1 0.0 43.886164143601206 56.268187698786186 37.984344111605544 0 0 0
909 2 1 0.0 34.87061557141429 56.72552069184886 38.03334832952421 0 0 0
905 2 1 0.0 36.97750130848188 57.14020745374355 38.05788109155318 0 0 0
440 1 2 0.0 37.53654149518259 59.759113224305885 38.561924091822796 0 0 0
429 1 1 0.0 35.51036409415125 60.7425515994156 38.01856747889418 0 0 0
982 2 1 0.0 45.785319697232936 61.59305011293432 38.42800898021319 0 0 0
980 2 1 0.0 44.837845316703685 62.28635699790896 38.33730973213175 0 0 0
484 1 1 0.0 45.01319241529936 62.69047583571042 38.12496515796624 0 0 0
981 2 1 0.0 45.90053952821131 62.46264561584754 37.92627238937242 0 0 0
483 1 1 0.0 44.32159943657176 63.28151452258333 38.45694967282554 0 0 0
480 1 1 0.0 43.86560054525198 64.6367254443811 37.95823922040441 0 0 0
481 1 1 0.0 44.873966697293994 64.35352878779067 37.888047934927265 0 0 0
478 1 1 0.0 43.84260252222408 66.04487410274369 38.265284155281606 0 0 0
477 1 1 0.0 43.17588366139622 66.74285098890093 37.876688913299475 0 0 0
462 1 1 0.0 40.634603207623606 67.82980422126437 38.059405480068655 0 0 0
476 1 1 0.0 43.14286819236576 67.67751016290724 38.34625955754519 0 0 0
474 1 1 0.0 43.313684371407284 68.91670028170955 38.152188367191584 0 0 0
466 1 1 0.0 41.23651917414035 69.3659908036007 38.55098839213899 0 0 0
522 2 1 0.0 42.72963532054973 7.679615773014805 38.836750340159675 0 0 0
523 2 1 0.0 42.524177677004076 8.54921169417377 39.22135780998397 0 0 0
524 2 1 0.0 43.53209445230353 8.206351165012768 38.977939346218854 0 0 0
527 2 1 0.0 44.024626635772286 8.40913674402556 39.166664800239545 0 0 0
138 1 1 0.0 35.02235255514283 28.890768161875574 39.20437500792818 0 0 0
141 1 1 0.0 33.88182364286773 29.38438968517451 38.75161938810411 0 0 0
169 1 1 0.0 36.742163190244945 32.00108938905316 38.91303561681418 0 0 0
148 1 1 0.0 33.56801494377476 32.341879619438195 38.68776982430182 0 0 0
151 1 1 0.0 34.944593332259196 32.72833347610754 39.025560065728435 0 0 0
150 1 1 0.0 34.39126996504389 33.38916709845754 38.79066198193913 0 0 0
202 1 1 0.0 28.602864402642773 38.90603250681317 39.280536449297536 0 0 0
204 1 1 0.0 29.26967147978221 39.49434459144154 38.9104172368171 0 0 0
253 1 1 0.0 37.53935718202273 39.642271751806376 38.728926046820426 0 0 0
205 1 1 0.0 29.311913950341967 40.58426140612186 38.95707482589588 0 0 0
252 1 1 0.0 37.12292109421044 40.56147912159851 38.68334992562755 0 0 0
362 1 1 0.0 53.46564033482471 48.037481093062425 38.70411048730944 0 0 0
368 1 1 0.0 51.29026348345751 49.19371117179202 38.658054634255926 0 0 0
916 2 1 0.0 34.549034631999454 52.42143111790514 39.20544673044048 0 0 0
915 2 1 0.0 34.42304001212301 53.303211642125284 38.84600409111671 0 0 0
896 2 1 0.0 38.733702809980706 53.634402637047174 39.20027155588537 0 0 0
894 2 1 0.0 39.57285695255105 54.2344219944975 39.1224792481033 0 0 0
913 2 1 0.0 34.82183174182884 54.99176395284125 38.912094045664894 0 0 0
901 2 1 0.0 38.986072047117254 54.95498545401132 38.63370255894342 0 0 0
911 2 1 0.0 34.52703236189782 55.441088158018374 38.71597972038722 0 0 0
902 2 1 0.0 38.84956496725165 55.8735070585504 38.97233019690579 0 0 0
904 2 1 0.0 37.69298795950851 57.19120178876458 38.84395458596677 0 0 0
438 1 1 0.0 37.377927555728455 58.49212738252003 38.891798474413235 0 0 0
441 1 3 0.0 38.47861406664455 59.40205106733482 38.823325241198 0 0 0
985 2 1 0.0 46.823994630848425 59.84256896182949 39.062906600923974 0 0 0
987 2 1 0.0 48.64073870478233 59.67336179538207 38.959539022803206 0 0 0
430 1 1 0.0 35.05472112302716 60.4845440173875 38.961147274231486 0 0 0
983 2 1 0.0 46.02136285156355 61.04851617109903 39.09956436061484 0 0 0
446 1 1 0.0 40.82391853493605 61.603476337862006 38.79586174168517 0 0 0
979 2 2 0.0 44.019777750836106 62.57081105389071 38.82767783391949 0 0 0
448 1 1 0.0 40.314752771591266 63.1440215529797 39.02070410901725 0 0 0
461 1 1 0.0 40.19265375148522 67.4986975458111 38.81887006538771 0 0 0
463 1 1 0.0 40.92218134590467 68.34423467699504 38.903180323386486 0 0 0
465 1 1 0.0 41.04264214338321 68.55568204268519 39.10428664103087 0 0 0
464 1 1 0.0 40.69626324354288 69.43934442108552 38.737953531959086 0 0 0
535 2 1 0.0 41.697090383906854 4.843515698696111 39.965495580976366 0 0 0
533 2 1 0.0 42.797850090891636 4.300343346767452 39.43882248065903 0 0 0
532 2 1 0.0 43.70253572835151 4.494939832530849 39.74807453399042 0 0 0
536 2 1 0.0 41.423336922529316 5.79115911253489 39.52099244238183 0 0 0
530 2 1 0.0 43.264883257403405 6.097705379103313 39.600734776047965 0 0 0
529 2 1 0.0 42.9429805976193 7.120949592994808 39.69603671414033 0 0 0
528 2 1 0.0 43.820036844705754 7.458876435940288 39.37064430860524 0 0 0
135 1 1 0.0 35.36682911855462 27.635148564588988 39.30400339460022 0 0 0
170 1 1 0.0 36.35788494998358 31.614725653185882 39.64422480482866 0 0 0
171 1 2 0.0 35.640180760659696 32.170376611404386 39.43181393819831 0 0 0
149 1 1 0.0 33.864338186643764 32.997397316457864 39.3772538070772 0 0 0
195 1 1 0.0 30.73433943971766 34.99632252559855 39.8170429354626 0 0 0
196 1 1 0.0 30.023409051884563 35.643867518569365 39.37346482269834 0 0 0
197 1 1 0.0 29.076709401107667 35.84749029712671 39.64720215489427 0 0 0
201 1 1 0.0 29.063824413163722 38.29414552049032 39.961313922611346 0 0 0
256 1 1 0.0 36.65027321242023 40.045294935502525 39.45893887739735 0 0 0
360 1 1 0.0 53.076585185708865 47.44216833624277 39.693850800745174 0 0 0
361 1 1 0.0 53.57978921768795 48.23522545094722 39.758009324536545 0 0 0
917 2 1 0.0 35.20658523993754 51.67438132994311 39.39167951578089 0 0 0
918 2 1 0.0 34.982877542840335 52.55499082366841 39.51661127819591 0 0 0
892 2 1 0.0 39.74788820055893 52.91093355696639 39.67918990429212 0 0 0